SPPARKS (8 Jul 2015)
==Thu Apr  8 17:33:34 2021
seed                     2001
==Thu Apr  8 17:33:34 2021
app_style                vacancy xyz float32 restart off
==Thu Apr  8 17:33:34 2021
dimension                3
==Thu Apr  8 17:33:34 2021
lattice                  bcc 2.87
==Thu Apr  8 17:33:34 2021
region                   box block 0 400 0 400 0 400
==Thu Apr  8 17:33:34 2021
ghost                    10
==Thu Apr  8 17:33:34 2021
create_box               box
Created box = (0 0 0) to (1148 1148 1148)
  1 by 1 by 1 processor grid
==Thu Apr  8 17:33:34 2021
create_sites             box value site 1 count auto
Creating sites ...
Begining structured_lattice ...Thu Apr  8 17:33:34 2021
 structured_lattice: before 4-level-loop(mijk)
Thu Apr  8 17:33:34 2021
allocate 128000000 local sites and 0 ghost sites for each task
 structured_lattice: after 4-level-loop(mijk): 2135.121 ms
 structured_lattice: before add_ghost
Thu Apr  8 17:33:36 2021
 structured_lattice: before MPI_Allreduce
Thu Apr  8 17:33:36 2021
  128000000 sites
Begining transport ...Thu Apr  8 17:33:36 2021
End transport ...Thu Apr  8 17:33:39 2021
==Thu Apr  8 17:33:39 2021
set                      i1 value 0 fraction 8e-6   local if i1 = 1
set: begin set site value nlocal 128000000 max 128000000
  1024 settings made for i1: 0.313 s
==Thu Apr  8 17:33:39 2021
set                      i1 value 2 fraction 0.0134 local if i1 = 1
set: begin set site value nlocal 128000000 max 128000000
  1715200 settings made for i1: 1737.643 s
==Thu Apr  8 17:33:40 2021
barrier                  Fe 0.65
==Thu Apr  8 17:33:41 2021
barrier                  Cu 0.56
==Thu Apr  8 17:33:41 2021
neighbor_size            8
Include up to 8th neighbors
==Thu Apr  8 17:33:41 2021
pair_style               precompute ./CuFe_tag12_b.convpb conv2d 16 batch 7 log 0 pad cache yes
==Thu Apr  8 17:33:41 2021
vac_jump_max_dist        110.25
==Thu Apr  8 17:33:41 2021
dump_memory_usage        memory.log
==Thu Apr  8 17:33:41 2021
use_post_comm            yes
==Thu Apr  8 17:33:41 2021
test_comm                no
==Thu Apr  8 17:33:41 2021
new_vac_iter             yes
==Thu Apr  8 17:33:41 2021
use_recal_list           yes
==Thu Apr  8 17:33:41 2021
temperature              573.0
==Thu Apr  8 17:33:41 2021
solve_style              tree
==Thu Apr  8 17:33:41 2021
sector                   yes tstop 1e-8
==Thu Apr  8 17:33:41 2021
stats                    1e-8
==Thu Apr  8 17:33:41 2021
run                      1e-7
AppLattice: begin comm->init... memory left: 32767
Thu Apr  8 17:33:46 2021
Global memory sync: minimum = 32767 MB
AppLattice: after comm->init... memory left: 32767
Thu Apr  8 17:33:52 2021
Read ./CuFe_tag12_b.convpb: OK
Setting up run ...
AppLattice::setup app... memory left: 32767
Thu Apr  8 17:33:53 2021
AppVacancy::setup_app
AppLattice::after setup app... memory left: 32767
Thu Apr  8 17:34:03 2021
AppLattice::after perform_all... memory left: 32767
Thu Apr  8 17:34:03 2021
Global memory sync: minimum = 32767 MB
AppLattice: compute propensity for set 0
VAC cache initialized
AppLattice: compute propensity for set 1
AppLattice: compute propensity for set 2
AppLattice: compute propensity for set 3
AppLattice: compute propensity for set 4
AppLattice: compute propensity for set 5
AppLattice: compute propensity for set 6
AppLattice: compute propensity for set 7
AppLattice::after solve init... memory left: 32767
Thu Apr  8 17:34:18 2021
AppLattice: setup_end_app
        Time         Naccept    Nreject    Nsweeps          CPU
           0               0          0          0        0.000
after_setup: memory left: 32767
after setup
Thu Apr  8 17:34:18 2021
       1e-08            1337          0          1       24.152
       2e-08            2475          0          2       44.547
       3e-08            3590          0          3       63.988
       4e-08            4617          0          4       81.829
       5e-08            5615          0          5       99.268
       6e-08            6659          0          6      117.530
       7e-08            7657          0          7      134.672
       8e-08            8669          0          8      152.140
       9e-08            9640          0          9      168.972
       1e-07           10630          0         10      185.954
     1.1e-07           11639          0         11      203.400
Loop time of 203.401 on 1 procs

Extra app time  = 0
Sess->run time (96632832) = 150.095
Solve time (%)  = 0.00496741 (0.00244217)
Update time (%) = 1.49529 (0.735144)
Comm  time (%)  = 0 (0)
Outpt time (%)  = 0.0130927 (0.00643689)
App   time (%)  = 201.887 (99.2556)
Other time (%) = 0.000851166 (0.000418467)
Rank0: Total calculate time: 14.651309, 202.423550
Rank0: Total sess->run time(4825088, 96632832): 10.183186, 150.094587
Rank0: Total build time(0, 0): 4.411453, 52.162851
Rank0: site_event: total=201.871372, core(11722)=201.456998, jump=0.359926
Rank0: Total vap time: 0.018211, 0.248185
